# vtk DataFile Version 3.0
Output from R2
ASCII
DATASET UNSTRUCTURED_GRID
POINTS      13933 double
640087.32000   162.00000   0.
640087.63000   162.01000   0.
640087.94000   162.01000   0.
640088.25000   162.01000   0.
640088.55000   162.01000   0.
640088.86000   162.01000   0.
640089.17000   162.01000   0.
640089.48000   162.02000   0.
640089.79000   162.02000   0.
640090.09000   162.02000   0.
640090.40000   162.02000   0.
640090.71000   162.02000   0.
640091.02000   162.03000   0.
640091.33000   162.03000   0.
640091.63000   162.03000   0.
640091.94000   162.03000   0.
640092.25000   162.03000   0.
640092.56000   162.03000   0.
640092.87000   162.04000   0.
640093.17000   162.04000   0.
640093.48000   162.04000   0.
640093.79000   162.04000   0.
640094.10000   162.04000   0.
640094.41000   162.05000   0.
640094.71000   162.05000   0.
640095.02000   162.05000   0.
640095.33000   162.05000   0.
640095.64000   162.05000   0.
640095.95000   162.05000   0.
640096.26000   162.06000   0.
640096.56000   162.06000   0.
640096.87000   162.06000   0.
640097.18000   162.06000   0.
640097.49000   162.06000   0.
640097.80000   162.07000   0.
640098.10000   162.07000   0.
640098.35000   162.07000   0.
640098.66000   162.07000   0.
640098.96000   162.06000   0.
640099.27000   162.06000   0.
640099.57000   162.06000   0.
640099.88000   162.06000   0.
640100.18000   162.06000   0.
640100.49000   162.06000   0.
640100.79000   162.06000   0.
640101.10000   162.06000   0.
640101.40000   162.06000   0.
640101.71000   162.06000   0.
640102.01000   162.05000   0.
640102.32000   162.05000   0.
640102.62000   162.05000   0.
640102.93000   162.05000   0.
640103.23000   162.05000   0.
640103.54000   162.05000   0.
640103.84000   162.05000   0.
640104.15000   162.05000   0.
640104.45000   162.05000   0.
640104.76000   162.05000   0.
640105.06000   162.05000   0.
640105.37000   162.04000   0.
640105.67000   162.04000   0.
640105.98000   162.04000   0.
640106.28000   162.04000   0.
640106.59000   162.04000   0.
640106.89000   162.04000   0.
640107.20000   162.04000   0.
640107.50000   162.04000   0.
640107.81000   162.04000   0.
640108.11000   162.04000   0.
640108.42000   162.03000   0.
640108.72000   162.03000   0.
640109.03000   162.03000   0.
640087.95000   155.70000   0.
640089.02000   155.70000   0.
640090.10000   155.71000   0.
640091.18000   155.72000   0.
640092.25000   155.72000   0.
640093.33000   155.73000   0.
640094.41000   155.74000   0.
640095.48000   155.74000   0.
640096.56000   155.75000   0.
640097.64000   155.75000   0.
640098.71000   155.75000   0.
640099.79000   155.75000   0.
640100.87000   155.75000   0.
640101.94000   155.74000   0.
640103.02000   155.74000   0.
640104.09000   155.74000   0.
640105.17000   155.73000   0.
640106.25000   155.73000   0.
640107.32000   155.73000   0.
640108.40000   155.72000   0.
640087.39750   162.00250   0.
640087.47500   162.00500   0.
640087.55250   162.00750   0.
640087.70750   162.01000   0.
640087.78500   162.01000   0.
640087.86250   162.01000   0.
640088.01750   162.01000   0.
640088.09500   162.01000   0.
640088.17250   162.01000   0.
640088.32500   162.01000   0.
640088.40000   162.01000   0.
640088.47500   162.01000   0.
640088.62750   162.01000   0.
640088.70500   162.01000   0.
640088.78250   162.01000   0.
640088.93750   162.01000   0.
640089.01500   162.01000   0.
640089.09250   162.01000   0.
640089.24750   162.01250   0.
640089.32500   162.01500   0.
640089.40250   162.01750   0.
640089.55750   162.02000   0.
640089.63500   162.02000   0.
640089.71250   162.02000   0.
640089.86500   162.02000   0.
640089.94000   162.02000   0.
640090.01500   162.02000   0.
640090.16750   162.02000   0.
640090.24500   162.02000   0.
640090.32250   162.02000   0.
640090.47750   162.02000   0.
640090.55500   162.02000   0.
640090.63250   162.02000   0.
640090.78750   162.02250   0.
640090.86500   162.02500   0.
640090.94250   162.02750   0.
640091.09750   162.03000   0.
640091.17500   162.03000   0.
640091.25250   162.03000   0.
640091.40500   162.03000   0.
640091.48000   162.03000   0.
640091.55500   162.03000   0.
640091.70750   162.03000   0.
640091.78500   162.03000   0.
640091.86250   162.03000   0.
640092.01750   162.03000   0.
640092.09500   162.03000   0.
640092.17250   162.03000   0.
640092.32750   162.03000   0.
640092.40500   162.03000   0.
640092.48250   162.03000   0.
640092.63750   162.03250   0.
640092.71500   162.03500   0.
640092.79250   162.03750   0.
640092.94500   162.04000   0.
640093.02000   162.04000   0.
640093.09500   162.04000   0.
640093.24750   162.04000   0.
640093.32500   162.04000   0.
640093.40250   162.04000   0.
640093.55750   162.04000   0.
640093.63500   162.04000   0.
640093.71250   162.04000   0.
640093.86750   162.04000   0.
640093.94500   162.04000   0.
640094.02250   162.04000   0.
640094.17750   162.04250   0.
640094.25500   162.04500   0.
640094.33250   162.04750   0.
640094.48500   162.05000   0.
640094.56000   162.05000   0.
640094.63500   162.05000   0.
640094.78750   162.05000   0.
640094.86500   162.05000   0.
640094.94250   162.05000   0.
640095.09750   162.05000   0.
640095.17500   162.05000   0.
640095.25250   162.05000   0.
640095.40750   162.05000   0.
640095.48500   162.05000   0.
640095.56250   162.05000   0.
640095.71750   162.05000   0.
640095.79500   162.05000   0.
640095.87250   162.05000   0.
640096.02750   162.05250   0.
640096.10500   162.05500   0.
640096.18250   162.05750   0.
640096.33500   162.06000   0.
640096.41000   162.06000   0.
640096.48500   162.06000   0.
640096.63750   162.06000   0.
640096.71500   162.06000   0.
640096.79250   162.06000   0.
640096.94750   162.06000   0.
640097.02500   162.06000   0.
640097.10250   162.06000   0.
640097.25750   162.06000   0.
640097.33500   162.06000   0.
640097.41250   162.06000   0.
640097.56750   162.06250   0.
640097.64500   162.06500   0.
640097.72250   162.06750   0.
640097.87500   162.07000   0.
640097.95000   162.07000   0.
640098.02500   162.07000   0.
640098.16250   162.07000   0.
640098.22500   162.07000   0.
640098.28750   162.07000   0.
640098.42750   162.07000   0.
640098.50500   162.07000   0.
640098.58250   162.07000   0.
640098.73500   162.06750   0.
640098.81000   162.06500   0.
640098.88500   162.06250   0.
640099.03750   162.06000   0.
640099.11500   162.06000   0.
640099.19250   162.06000   0.
640099.34500   162.06000   0.
640099.42000   162.06000   0.
640099.49500   162.06000   0.
640099.64750   162.06000   0.
640099.72500   162.06000   0.
640099.80250   162.06000   0.
640099.95500   162.06000   0.
640100.03000   162.06000   0.
640100.10500   162.06000   0.
640100.25750   162.06000   0.
640100.33500   162.06000   0.
640100.41250   162.06000   0.
640100.56500   162.06000   0.
640100.64000   162.06000   0.
640100.71500   162.06000   0.
640100.86750   162.06000   0.
640100.94500   162.06000   0.
640101.02250   162.06000   0.
640101.17500   162.06000   0.
640101.25000   162.06000   0.
640101.32500   162.06000   0.
640101.47750   162.06000   0.
640101.55500   162.06000   0.
640101.63250   162.06000   0.
640101.78500   162.05750   0.
640101.86000   162.05500   0.
640101.93500   162.05250   0.
640102.08750   162.05000   0.
640102.16500   162.05000   0.
640102.24250   162.05000   0.
640102.39500   162.05000   0.
640102.47000   162.05000   0.
640102.54500   162.05000   0.
640102.69750   162.05000   0.
640102.77500   162.05000   0.
640102.85250   162.05000   0.
640103.00500   162.05000   0.
640103.08000   162.05000   0.
640103.15500   162.05000   0.
640103.30750   162.05000   0.
640103.38500   162.05000   0.
640103.46250   162.05000   0.
640103.61500   162.05000   0.
640103.69000   162.05000   0.
640103.76500   162.05000   0.
640103.91750   162.05000   0.
640103.99500   162.05000   0.
640104.07250   162.05000   0.
640104.22500   162.05000   0.
640104.30000   162.05000   0.
640104.37500   162.05000   0.
640104.52750   162.05000   0.
640104.60500   162.05000   0.
640104.68250   162.05000   0.
640104.83500   162.05000   0.
640104.91000   162.05000   0.
640104.98500   162.05000   0.
640105.13750   162.04750   0.
640105.21500   162.04500   0.
640105.29250   162.04250   0.
640105.44500   162.04000   0.
640105.52000   162.04000   0.
640105.59500   162.04000   0.
640105.74750   162.04000   0.
640105.82500   162.04000   0.
640105.90250   162.04000   0.
640106.05500   162.04000   0.
640106.13000   162.04000   0.
640106.20500   162.04000   0.
640106.35750   162.04000   0.
640106.43500   162.04000   0.
640106.51250   162.04000   0.
640106.66500   162.04000   0.
640106.74000   162.04000   0.
640106.81500   162.04000   0.
640106.96750   162.04000   0.
640107.04500   162.04000   0.
640107.12250   162.04000   0.
640107.27500   162.04000   0.
640107.35000   162.04000   0.
640107.42500   162.04000   0.
640107.57750   162.04000   0.
640107.65500   162.04000   0.
640107.73250   162.04000   0.
640107.88500   162.04000   0.
640107.96000   162.04000   0.
640108.03500   162.04000   0.
640108.18750   162.03750   0.
640108.26500   162.03500   0.
640108.34250   162.03250   0.
640108.49500   162.03000   0.
640108.57000   162.03000   0.
640108.64500   162.03000   0.
640108.79750   162.03000   0.
640108.87500   162.03000   0.
640108.95250   162.03000   0.
640087.33286   155.69429   0.
640087.48714   155.69571   0.
640087.64143   155.69714   0.
640087.79571   155.69857   0.
640088.10286   155.70000   0.
640088.25571   155.70000   0.
640088.40857   155.70000   0.
640088.56143   155.70000   0.
640088.71429   155.70000   0.
640088.86714   155.70000   0.
640089.17429   155.70143   0.
640089.32857   155.70286   0.
640089.48286   155.70429   0.
640089.63714   155.70571   0.
640089.79143   155.70714   0.
640089.94571   155.70857   0.
640090.25429   155.71143   0.
640090.40857   155.71286   0.
640090.56286   155.71429   0.
640090.71714   155.71571   0.
640090.87143   155.71714   0.
640091.02571   155.71857   0.
640091.33286   155.72000   0.
640091.48571   155.72000   0.
640091.63857   155.72000   0.
[...]
POINT_DATA     13933
CELL_DATA     27255
SCALARS Resistivity(ohm.m) double 1
LOOKUP_TABLE default
             6.87634             6.81906             6.84241             7.04902             6.93658             6.83312             6.99050             6.85386             6.88332             6.84963             6.82891             6.81865             7.10009             6.82630             6.81023             6.97947             6.81952             6.86008             7.10809             6.90159             6.89154             6.84460             6.91197             6.81787             6.95845             6.81436             6.81286             7.08417             6.83466             6.86650             6.81456             7.02372             7.11672             7.07352             6.81517             6.81716             6.81925             6.81856             6.80873             6.82425             6.81668             6.82184             6.82576             6.81138             7.09190             6.87119             6.92365             6.83104             7.13383             6.83681             6.83273             6.83368             6.94860             7.12510             6.96830             6.83969             7.00109             7.01197             6.84344             6.84685             5.23256             3.68437             6.90543             8.11410             7.27054             4.83315             7.41995             7.23039             8.49044             6.84061             6.90222             6.57862             3.91035             7.08386             8.37463             7.30834             6.72168             4.32080             8.33185             7.27780             6.29143             7.87805             7.55720             4.73312             7.60224             7.45188             6.72678             7.65762             5.82234             6.34497             6.09091             4.85986             8.51648             8.41884             7.28578             7.24952             5.91551             8.46983             5.88724             6.59528             8.15784             7.27786             4.82523             8.76987             7.28733             5.58892             5.88914             6.88265             6.74431             7.43147             8.17968             7.22708             3.42502             7.31625             6.70840             7.01278             7.46017             5.39046             5.34639             7.17845             5.76254             7.34065             6.85081             5.65150             4.48684             3.59510             7.25508             3.78958             5.93816             7.68279             7.93153             7.19991             5.27551             7.23193             7.22302             6.12810             5.53139             5.17503             6.23634             7.08236             3.80081             6.99560             8.66154             6.40815             7.43871             7.68901             7.29314             5.89807             7.35464             6.95288             8.47744             7.70023             6.64317             6.77573             5.84946             6.66172             7.13037             7.71950             6.97344             4.45505             4.90935             7.13925             4.97573             5.90839             5.34016             7.03704             6.98402             7.76890             8.52994             4.11886             8.02772             5.48259             4.53724             7.61112             7.34050             7.31565             7.31491             7.09848             5.04560             7.58026             7.11208             5.13886             4.91989             8.49750             7.15953             7.71188             6.21169             4.80096             7.67881             6.33762             7.61032             7.19745             7.01383             8.32066             7.15990             3.60514             6.85125             4.74710             4.87874             7.26711             6.61514             5.08741             6.74413             6.21280             7.68698             6.96459             6.77541             5.37980             4.77303             7.13681             6.83316             8.47992             4.30741             4.54119             4.94517             6.40129             6.13559             7.34518             8.43424             6.91209             6.88428             8.73586             4.73944             6.93734             7.38430             5.67985             7.79936             6.94840             4.67549             5.61608             8.28213             4.93336             4.76261             6.91802             7.60949             7.28783             6.94238             6.21241             5.27703             7.26990             7.25314             7.53120             6.76579             7.72476             8.55087             4.82998             4.73246             7.19487             6.95029             8.49424             4.79514             7.45550             6.85491             7.14467             6.57826             4.14701             7.55930             6.98095             7.17292             6.24324             7.60054             7.76895             8.67125             7.24703             5.53145             7.27840             6.38271             5.46265             3.55926             8.52879             6.81766             8.12419             6.86739             2.37222             6.94110             5.25719             3.72118             6.51894             6.67003             5.93929             7.84257             6.85308             7.36198             7.43400             5.53681             7.31312             4.87211             7.17795             6.13757             7.54646             2.68191             5.26414             8.19389             4.92846             8.04252             7.01104             7.39042             7.19747             5.97552             6.92383             7.44102             4.86299             7.50270             7.49451             7.58447             7.12559             7.14524             6.72987             6.77980             6.99889             5.82171             6.68745             7.13192             7.20665             8.57719             2.51572             5.80635             8.16367             6.09608             3.75853             6.93497             7.66498             7.51704             6.88537             7.30358             7.39775             5.23608             3.80449             4.10109             7.49177             6.19035             4.13270             7.23809             7.54426             7.02279             8.10898             7.27225             3.77010             6.50286             3.66544             8.52155             7.40082             5.15652             2.62883             5.69386             5.55972             7.32996             5.11144             7.96979             7.74989             5.30712             6.85672             6.94819             6.89706             7.29810             4.45602             8.37235             8.24076             4.51690             4.95195             7.22706             5.87705             7.98286             5.58848             7.22060             5.33337             7.50428             8.22838             4.65376             4.30902             5.07335             6.01794             7.01290             7.20661             6.93957             7.22037             5.09402             5.31236             7.21482             7.18937             8.56635             6.79828             6.17614             7.31537             8.33332             7.63821             4.15694             7.39873             4.91262             7.55135             7.24470             6.77393             6.93691             5.29050             6.75585             6.80022             7.66958             3.10587             8.01210             8.39795             7.05678             6.59147             7.04895             7.22712             4.27898             7.63824             4.71919             5.02668             6.74555             7.02107             7.53934             5.43827             5.41686             3.68381             5.77205             7.19980             7.75943             7.37650             4.27449             7.54831             6.94537             5.81993             7.50355             4.09769             6.93198             7.30550             6.43609             7.47034             7.31584             4.84281             3.83848             4.51643             5.77882             7.01022             3.91046             6.01242             6.82799             8.05024             7.41955             4.55053             3.62741             8.09728             7.16328             7.75891             5.78651             4.91311             4.41145             5.78286             5.81639             6.53406             5.42246             7.01270             6.77580             6.91837             8.05635             5.05136             5.83052             4.75082             5.79005             6.79160             8.04369             7.16424             5.71410             8.54395             3.93841             5.44456             7.44822             6.83433             7.19251             7.23882             4.40297             6.41769             7.04730             7.73073             7.30316             7.86572             6.44467             7.56438             7.12055             7.54643             7.97420             8.36450             6.24177             7.48638             7.31407             5.03960             5.62657             6.97023             7.45858             6.15833             3.67124             2.90796             6.95100             7.43295             7.38383             6.01809             6.90352             3.76976             7.06146             8.00744             7.09734             7.37600             7.33745             7.23760             5.14198             3.10967             7.56460             6.68464             7.34477             7.45993             6.36726             7.30487             7.95158             7.74571             3.03052             6.94061             6.12917             7.68073             7.03307             6.82181             6.87974             6.26268             7.95357             7.12251             3.79771             6.84341             3.56604             6.38654             4.66944             6.87842             8.25097             7.30660             6.09911             7.45006             7.34069             7.36302             8.17498             5.31488             5.97955             6.51528             7.36261             8.41343             7.76209             7.68711             7.99260             6.18333             7.30167             8.68145             7.61923             5.66858             5.69972             7.17175             8.67202             7.56053             7.71159             8.19680             7.31844             7.39364             7.58454             7.04476             7.26657             5.85659             6.88174             4.30468             6.63714             8.22748             7.38833             7.54054             6.31074             5.80690             7.47099             7.01589             7.57324             6.47140             4.17135             7.47209             4.43635             7.18005             7.28810             2.86078             4.20843             7.09667             7.08660             4.52589             7.34893             7.70742             4.90486             7.83183             6.20989             7.56933             5.78409             4.92446             7.95071             6.52133             7.20546             7.10473             8.71476             6.45009             5.20197             5.13904             6.13223             5.29645             6.89617             7.49652             7.68977             6.76166             8.12146             7.64605             3.77894             7.32948             6.75467             7.56816             7.45926             7.14565             7.77914             4.61125             4.47098             4.61648             7.01150             7.34011             8.40207             5.33504             6.05993             7.55903             5.57115             7.43594             6.19684             4.65024             6.50038             3.92228             5.59781             8.06975             7.54481             7.52287             5.53383             7.39757             5.00836             6.50532             7.03121             7.73634             6.53742             7.81005             5.48657             6.25134             3.84554             8.07986             6.61127             7.14759             4.84135             5.23848             5.73016             6.40755             6.31946             6.88430             7.25759             8.90335             4.26162             2.52136             2.32086             5.46668             7.29474             8.13216             8.42997             8.36910             6.23248             7.19923             4.99674             4.51587             5.92558             7.05804             4.84482             7.39886             5.55027             4.62919             8.20662             7.00211             6.92379             7.86061             7.24591             5.22291             7.17642             3.99289             7.01787             7.51981             6.92540             8.08733             8.48582             5.16180             7.80509             7.37379             7.20400             6.94237             3.81973             7.11530             8.29566             7.26602             8.03277             7.76254             4.90407             7.41065             6.51757             7.24609             7.75570             8.68385             6.14646             4.68354             6.52108             6.21787             7.01517             7.53707             4.94484             8.06887             7.47766             6.37354             8.06259             7.01139             8.15811             7.56838             5.87002             5.39742             5.70859             7.12583             7.19593             7.19026             7.02413             7.49651             6.92075             7.26774             3.87158             7.16375             4.77272             6.37621             6.90366             4.87635             6.55559             5.81139             7.35209             6.81535             5.89075             7.09201             7.14292             6.33677             8.34270             7.51280             5.13216             6.94067             6.86520             7.21260             3.97884             7.38095             6.84226             6.37582             4.74461             6.80646             5.40109             6.71833             7.41873             7.26964             5.77446             7.09503             4.83203             7.05298             7.57387             6.11289             7.65081             7.15498             6.48997             5.63757             7.13995             5.81124             5.52224             8.01133             6.48242             7.44902             6.88168             5.51022             8.09188             7.99230             6.78942             6.88039             6.21409             7.00680             8.14119             8.23803             6.87628             6.93131             7.71238             7.26568             7.18500             8.51367             6.87640             4.40560             7.34360             7.21331             7.10034             7.62802             6.37463             5.94740             8.22352             6.64654             3.69202             5.17956             7.98844             6.75698             7.37566             8.11121             8.20922             7.45216             8.01663             7.16338             7.98957             7.11601             7.14129             8.82406             7.06337             5.79216             8.24901             6.78355             8.20332             7.63037             6.99541             7.91731             3.59541             5.47019             7.38309             8.00550             7.20511             6.04139             7.77618             6.90426             6.96064             8.13049             6.61192             5.44984             4.81621             4.49065             7.17899             6.99274             8.82170             7.97205             6.88295             6.39870             7.52210             7.73445             5.20115             4.76589             3.74015             5.97037             7.76259             8.27814             6.93171             6.31184             8.82080             2.24277             6.71217             7.48065             6.20455             7.14212             7.00189             3.39324             7.84025             7.14627             8.01238             7.21939             3.95013             7.44419             7.14023             6.87946             7.33459             8.69512             3.01545             4.32707             4.65046             6.37848             5.06876             5.76092             8.29747             7.54367             4.49017             2.95865             5.95038             7.36399             7.66562             6.53363             4.78537             5.90442             6.80689             7.08683             6.74615             8.65423             7.97643             8.24468             6.82057             5.52460             7.17784             4.69375             5.88028             4.92706             7.95651             6.99212             5.76307             5.18163             8.73488             2.68962             7.82036             7.38710             8.81747             8.37136             3.92011             6.84048             7.73333             6.90910             7.66661             6.89250             7.92613             6.63791             6.89236             6.92599             5.29704             5.33059             7.07092             7.39809             7.14014             7.88298             6.86578             6.89459             7.26896             7.19335             7.70849             5.73496             8.63555             7.01779             7.40955             8.06865             7.01140             8.20857             6.72298             7.09852             7.58438             8.73324             5.42136             7.41750             8.71036             7.39151             8.59613             5.95017             5.78154             6.97957             6.89544             7.17587             7.33787             6.62945             7.17652             8.38980             4.08264             6.95278             7.50080             8.18512             7.17897             6.92763             5.02129             6.94701             8.16656             7.26796             7.12492             7.27077             6.77592             7.72910             4.74277             6.92158             7.26762             5.11123             7.79365             6.79158             5.81096             6.40144             7.55969             7.37713             7.89743             8.24784             7.07892             4.32500             5.66458             7.18090             5.07234             6.38092             7.08808             8.37459             7.19167             5.41766             2.77218             6.96075             6.11039             7.20612             6.90716  